{
  "generated_at": "2025-12-16T07:27:10.560517+08:00",
  "metadata": {
    "leaf_cluster": {
      "leaf_cluster_id": "C3",
      "leaf_cluster_name": "化学-反应预测与逆合成生态",
      "domain": "Chemistry",
      "typical_objects": "reaction SMILES/templates",
      "task_chain": "清洗→预测→规划→路线评估→benchmark",
      "tool_form": "预测/规划器 + 数据/评测"
    },
    "unit": {
      "unit_id": "C3-05",
      "unit_name": "检索增强与知识库（专利/文献）",
      "target_scale": "200–450",
      "coverage_tools": "retrievers、RAG、evidence tools"
    },
    "search": {
      "target_candidates": 450,
      "queries": [
        "[GH] ChemRxiv-API",
        "[GH] OPSIN",
        "[GH] STOUT",
        "[GH] PubChemPy",
        "[GH] RXNMapper",
        "[GH] AskCOS",
        "[GH] ReactionDataExtractor",
        "[GH] ChemDataExtractor",
        "[GH] chemical reaction retrieval",
        "[GH] retrosynthesis knowledge base",
        "[GH] chemistry rag",
        "[GH] patent reaction mining",
        "[GH] chemical text extraction",
        "[GH] reaction similarity search",
        "[GH] molecular search engine",
        "[GH] chemistry nlp",
        "[GH] reaction template retrieval",
        "[GH] chemical entity recognition",
        "[GH] reaction database search",
        "[GH] chemical literature mining",
        "[GH] retrieval augmented synthesis",
        "[WEB] retrieval augmented generation chemistry github",
        "[WEB] chemical patent mining tools github",
        "[WEB] reaction database search algorithms github",
        "[WEB] chemistry knowledge graph construction github",
        "[WEB] chemical literature extraction python github",
        "[GH] ChemDataExtractor snakemake",
        "[GH] ChemDataExtractor nextflow",
        "[GH] ChemDataExtractor pipeline",
        "[GH] ChemDataExtractor workflow",
        "[GH] ChemDataExtractor wrapper",
        "[GH] ChemDataExtractor bioconda",
        "[GH] ChemDataExtractor galaxy",
        "[GH] ChemDataExtractor2-try snakemake",
        "[GH] ChemDataExtractor2-try nextflow",
        "[GH] ChemDataExtractor2-try pipeline",
        "[GH] ChemDataExtractor2-try workflow",
        "[GH] ChemDataExtractor2-try wrapper",
        "[GH] ChemDataExtractor2-try bioconda",
        "[GH] ChemDataExtractor2-try galaxy",
        "[GH] Curie-Neel-temperature-dataset snakemake",
        "[GH] Curie-Neel-temperature-dataset nextflow",
        "[GH] Curie-Neel-temperature-dataset pipeline",
        "[GH] Curie-Neel-temperature-dataset workflow",
        "[GH] Curie-Neel-temperature-dataset wrapper",
        "[GH] Curie-Neel-temperature-dataset bioconda",
        "[GH] Curie-Neel-temperature-dataset galaxy",
        "[GH] OpsinActivationGUI snakemake",
        "[GH] OpsinActivationGUI nextflow",
        "[GH] OpsinActivationGUI pipeline",
        "[GH] OpsinActivationGUI workflow",
        "[GH] OpsinActivationGUI wrapper",
        "[GH] OpsinActivationGUI bioconda",
        "[GH] OpsinActivationGUI galaxy",
        "[GH] Stouts.wale snakemake",
        "[GH] Stouts.wale nextflow",
        "[GH] Stouts.wale pipeline",
        "[GH] Stouts.wale workflow",
        "[GH] Stouts.wale wrapper",
        "[GH] Stouts.wale bioconda",
        "[GH] Stouts.wale galaxy",
        "[GH] CaMEL-RAG snakemake",
        "[GH] CaMEL-RAG nextflow",
        "[GH] CaMEL-RAG pipeline",
        "[GH] CaMEL-RAG workflow",
        "[GH] CaMEL-RAG wrapper",
        "[GH] CaMEL-RAG bioconda",
        "[GH] CaMEL-RAG galaxy",
        "[GH] RAGX-SQL-High-Efficiency-Contextual-Retrieval-for-Databases snakemake",
        "[GH] RAGX-SQL-High-Efficiency-Contextual-Retrieval-for-Databases nextflow",
        "[GH] RAGX-SQL-High-Efficiency-Contextual-Retrieval-for-Databases pipeline",
        "[GH] RAGX-SQL-High-Efficiency-Contextual-Retrieval-for-Databases workflow",
        "[GH] RAGX-SQL-High-Efficiency-Contextual-Retrieval-for-Databases wrapper",
        "[GH] RAGX-SQL-High-Efficiency-Contextual-Retrieval-for-Databases bioconda",
        "[GH] RAGX-SQL-High-Efficiency-Contextual-Retrieval-for-Databases galaxy",
        "[GH] Stouts.sentry snakemake",
        "[GH] Stouts.sentry nextflow",
        "[GH] Stouts.sentry pipeline",
        "[GH] Stouts.sentry workflow",
        "[GH] Stouts.sentry wrapper",
        "[GH] Stouts.sentry bioconda",
        "[GH] Stouts.sentry galaxy",
        "[GH] Stouts.limits snakemake",
        "[GH] Stouts.limits nextflow",
        "[GH] Stouts.limits pipeline",
        "[GH] Stouts.limits workflow",
        "[GH] Stouts.limits wrapper",
        "[GH] Stouts.limits bioconda",
        "[GH] Stouts.limits galaxy",
        "[GH] Chemistry-Laboratory-Safety-Chatbot snakemake",
        "[GH] Chemistry-Laboratory-Safety-Chatbot nextflow",
        "[GH] Chemistry-Laboratory-Safety-Chatbot pipeline",
        "[GH] Chemistry-Laboratory-Safety-Chatbot workflow",
        "[GH] Chemistry-Laboratory-Safety-Chatbot wrapper",
        "[GH] Chemistry-Laboratory-Safety-Chatbot bioconda",
        "[GH] Chemistry-Laboratory-Safety-Chatbot galaxy",
        "[GH] askcos.github.io snakemake",
        "[GH] askcos.github.io nextflow",
        "[GH] askcos.github.io pipeline",
        "[GH] askcos.github.io workflow",
        "[GH] askcos.github.io wrapper",
        "[GH] askcos.github.io bioconda",
        "[GH] askcos.github.io galaxy",
        "[GH] molecular-search-engine snakemake",
        "[GH] molecular-search-engine nextflow",
        "[GH] molecular-search-engine pipeline",
        "[GH] molecular-search-engine workflow",
        "[GH] molecular-search-engine wrapper",
        "[GH] molecular-search-engine bioconda",
        "[GH] molecular-search-engine galaxy",
        "[GH] Stouts.users snakemake",
        "[GH] Stouts.users nextflow",
        "[GH] Stouts.users pipeline",
        "[GH] Stouts.users workflow",
        "[GH] Stouts.users wrapper",
        "[GH] Stouts.users bioconda",
        "[GH] Stouts.users galaxy",
        "[GH] optics snakemake",
        "[GH] optics nextflow",
        "[GH] optics pipeline",
        "[GH] optics workflow",
        "[GH] optics wrapper",
        "[GH] optics bioconda",
        "[GH] optics galaxy",
        "[GH] chemistry-rag1 snakemake",
        "[GH] chemistry-rag1 nextflow",
        "[GH] chemistry-rag1 pipeline",
        "[GH] chemistry-rag1 workflow",
        "[GH] chemistry-rag1 wrapper",
        "[GH] chemistry-rag1 bioconda",
        "[GH] chemistry-rag1 galaxy",
        "[GH] Stouts.jenkins snakemake",
        "[GH] Stouts.jenkins nextflow",
        "[GH] Stouts.jenkins pipeline",
        "[GH] Stouts.jenkins workflow",
        "[GH] Stouts.jenkins wrapper",
        "[GH] Stouts.jenkins bioconda",
        "[GH] Stouts.jenkins galaxy",
        "[GH] rxnmapper-feedstock snakemake",
        "[GH] rxnmapper-feedstock nextflow",
        "[GH] rxnmapper-feedstock pipeline",
        "[GH] rxnmapper-feedstock workflow",
        "[GH] rxnmapper-feedstock wrapper",
        "[GH] rxnmapper-feedstock bioconda",
        "[GH] rxnmapper-feedstock galaxy",
        "[GH] AtomMind snakemake",
        "[GH] AtomMind nextflow",
        "[GH] AtomMind pipeline",
        "[GH] AtomMind workflow",
        "[GH] AtomMind wrapper",
        "[GH] AtomMind bioconda",
        "[GH] AtomMind galaxy",
        "[GH] chemdataextractor2 snakemake",
        "[GH] chemdataextractor2 nextflow",
        "[GH] chemdataextractor2 pipeline",
        "[GH] chemdataextractor2 workflow",
        "[GH] chemdataextractor2 wrapper",
        "[GH] chemdataextractor2 bioconda",
        "[GH] chemdataextractor2 galaxy",
        "[GH] OpenStaPLE snakemake",
        "[GH] OpenStaPLE nextflow",
        "[GH] OpenStaPLE pipeline",
        "[GH] OpenStaPLE workflow",
        "[GH] OpenStaPLE wrapper",
        "[GH] OpenStaPLE bioconda",
        "[GH] OpenStaPLE galaxy",
        "[GH] ZOSPy snakemake",
        "[GH] ZOSPy nextflow",
        "[GH] ZOSPy pipeline",
        "[GH] ZOSPy workflow",
        "[GH] ZOSPy wrapper",
        "[GH] ZOSPy bioconda",
        "[GH] ZOSPy galaxy",
        "[GH] SLiT_recon snakemake",
        "[GH] SLiT_recon nextflow",
        "[GH] SLiT_recon pipeline",
        "[GH] SLiT_recon workflow",
        "[GH] SLiT_recon wrapper",
        "[GH] SLiT_recon bioconda",
        "[GH] SLiT_recon galaxy"
      ],
      "total_candidates": 415,
      "tool_candidates": 104,
      "final_tools": 38
    }
  },
  "tools": [
    {
      "name": "ASKCOS",
      "one_line_profile": "Computer-aided synthesis planning and chemical reactivity prediction platform",
      "detailed_description": "A comprehensive software package for computer-aided synthesis planning (CASP) that integrates data-driven models to predict chemical reactivity and plan synthetic routes.",
      "domains": [
        "Chemistry",
        "C3"
      ],
      "subtask_category": [
        "retrosynthesis",
        "reaction_prediction",
        "synthesis_planning"
      ],
      "application_level": "platform",
      "primary_language": "Python",
      "repo_url": "https://github.com/ASKCOS/ASKCOS",
      "help_website": [
        "https://askcos.mit.edu/"
      ],
      "license": "NOASSERTION",
      "tags": [
        "casp",
        "retrosynthesis",
        "chemical-reactivity"
      ],
      "id": 1
    },
    {
      "name": "askcos-core",
      "one_line_profile": "Core logic and backend for the ASKCOS synthesis planning platform",
      "detailed_description": "The backend Python package providing the core functionality for ASKCOS, handling API requests and model inference for chemical reactivity prediction.",
      "domains": [
        "Chemistry",
        "C3"
      ],
      "subtask_category": [
        "reaction_prediction",
        "backend_service"
      ],
      "application_level": "library",
      "primary_language": "Python",
      "repo_url": "https://github.com/ASKCOS/askcos-core",
      "help_website": [],
      "license": "NOASSERTION",
      "tags": [
        "backend",
        "chemistry-api",
        "askcos"
      ],
      "id": 2
    },
    {
      "name": "reagent_emb_vis",
      "one_line_profile": "Visualization tool for reagent embeddings and functional similarity",
      "detailed_description": "A tool for exploring reaction data by visualizing a map of reagents, identifying regions of similar reagent purpose based on embeddings.",
      "domains": [
        "Chemistry",
        "C3"
      ],
      "subtask_category": [
        "visualization",
        "data_exploration",
        "reagent_analysis"
      ],
      "application_level": "solver",
      "primary_language": "Python",
      "repo_url": "https://github.com/Academich/reagent_emb_vis",
      "help_website": [],
      "license": "MIT",
      "tags": [
        "visualization",
        "reagents",
        "embeddings"
      ],
      "id": 3
    },
    {
      "name": "um6p-chemistry-kg",
      "one_line_profile": "NLP pipeline for constructing chemistry knowledge graphs from abstracts",
      "detailed_description": "A project utilizing NLP and graph techniques to extract information from chemistry research paper abstracts and construct a domain-specific knowledge graph.",
      "domains": [
        "Chemistry",
        "C3-05"
      ],
      "subtask_category": [
        "knowledge_graph_construction",
        "information_extraction",
        "nlp"
      ],
      "application_level": "workflow",
      "primary_language": "Jupyter Notebook",
      "repo_url": "https://github.com/AnasAito/um6p-chemistry-kg",
      "help_website": [],
      "license": null,
      "tags": [
        "knowledge-graph",
        "nlp",
        "chemistry-abstracts"
      ],
      "id": 4
    },
    {
      "name": "2pSAM_recon",
      "one_line_profile": "Reconstruction pipeline for two-photon synthetic aperture microscopy",
      "detailed_description": "A MATLAB-based reconstruction pipeline for two-photon synthetic aperture microscopy (2pSAM) incorporating digital adaptive optics (DAO).",
      "domains": [
        "Physics",
        "Biology"
      ],
      "subtask_category": [
        "image_reconstruction",
        "microscopy",
        "adaptive_optics"
      ],
      "application_level": "workflow",
      "primary_language": "MATLAB",
      "repo_url": "https://github.com/BBNCELi/2pSAM_recon",
      "help_website": [],
      "license": null,
      "tags": [
        "microscopy",
        "image-processing",
        "matlab"
      ],
      "id": 5
    },
    {
      "name": "cmc-knowledge-graph-setup",
      "one_line_profile": "Infrastructure for Chemistry, Manufacturing and Control (CMC) Knowledge Graph",
      "detailed_description": "A setup for creating and managing a Knowledge Graph focused on Chemistry, Manufacturing, and Control (CMC), including data integration and ontology management.",
      "domains": [
        "Chemistry",
        "C3-05"
      ],
      "subtask_category": [
        "knowledge_graph_construction",
        "data_integration"
      ],
      "application_level": "platform",
      "primary_language": null,
      "repo_url": "https://github.com/Bayer-Group/cmc-knowledge-graph-setup",
      "help_website": [],
      "license": "BSD-3-Clause",
      "tags": [
        "knowledge-graph",
        "cmc",
        "ontology"
      ],
      "id": 6
    },
    {
      "name": "ChemEagle",
      "one_line_profile": "Multi-agent system for information extraction from chemical literature",
      "detailed_description": "A multi-agent framework designed to extract versatile information from chemical literature, enabling automated knowledge acquisition.",
      "domains": [
        "Chemistry",
        "C3-05"
      ],
      "subtask_category": [
        "information_extraction",
        "literature_mining",
        "multi_agent_system"
      ],
      "application_level": "solver",
      "primary_language": "Python",
      "repo_url": "https://github.com/CYF2000127/ChemEagle",
      "help_website": [],
      "license": "MIT",
      "tags": [
        "llm",
        "agents",
        "literature-extraction"
      ],
      "id": 7
    },
    {
      "name": "ChemDataExtractor",
      "one_line_profile": "Automated extraction of chemical property information from scientific documents",
      "detailed_description": "A toolkit for extracting chemical names, properties, and spectra from scientific text using NLP and rule-based methods.",
      "domains": [
        "Chemistry",
        "C3-05"
      ],
      "subtask_category": [
        "information_extraction",
        "text_mining",
        "property_extraction"
      ],
      "application_level": "library",
      "primary_language": "Python",
      "repo_url": "https://github.com/CambridgeMolecularEngineering/chemdataextractor",
      "help_website": [
        "http://chemdataextractor.org"
      ],
      "license": "MIT",
      "tags": [
        "nlp",
        "chemical-extraction",
        "text-mining"
      ],
      "id": 8
    },
    {
      "name": "ChemDataExtractor2",
      "one_line_profile": "Updated pipeline for chemical property extraction from text",
      "detailed_description": "Version 2.0 of ChemDataExtractor, offering improved capabilities for mining chemical information from scientific literature.",
      "domains": [
        "Chemistry",
        "C3-05"
      ],
      "subtask_category": [
        "information_extraction",
        "text_mining"
      ],
      "application_level": "library",
      "primary_language": "HTML",
      "repo_url": "https://github.com/CambridgeMolecularEngineering/chemdataextractor2",
      "help_website": [],
      "license": "NOASSERTION",
      "tags": [
        "nlp",
        "chemistry",
        "extraction"
      ],
      "id": 9
    },
    {
      "name": "ChemLLMBench",
      "one_line_profile": "Benchmark suite for Large Language Models in chemistry tasks",
      "detailed_description": "A comprehensive benchmark evaluating the performance of Large Language Models across eight different chemistry-related tasks.",
      "domains": [
        "Chemistry",
        "C3"
      ],
      "subtask_category": [
        "benchmarking",
        "model_evaluation"
      ],
      "application_level": "solver",
      "primary_language": "Jupyter Notebook",
      "repo_url": "https://github.com/ChemFoundationModels/ChemLLMBench",
      "help_website": [],
      "license": null,
      "tags": [
        "benchmark",
        "llm",
        "chemistry"
      ],
      "id": 10
    },
    {
      "name": "DeepTrack2",
      "one_line_profile": "Deep learning library for particle tracking and image analysis",
      "detailed_description": "A modular Python library for generating, manipulating, and analyzing image data pipelines, specifically designed for deep learning in experimental imaging and particle tracking.",
      "domains": [
        "Physics",
        "Biology"
      ],
      "subtask_category": [
        "image_analysis",
        "particle_tracking",
        "simulation"
      ],
      "application_level": "library",
      "primary_language": "Jupyter Notebook",
      "repo_url": "https://github.com/DeepTrackAI/DeepTrack2",
      "help_website": [
        "https://deeptrack-20.readthedocs.io/"
      ],
      "license": "MIT",
      "tags": [
        "microscopy",
        "deep-learning",
        "tracking"
      ],
      "id": 11
    },
    {
      "name": "chemdataextractorTADF",
      "one_line_profile": "Specialized extractor for TADF material properties",
      "detailed_description": "A modified version of ChemDataExtractor tailored for extracting properties of thermally-activated delayed fluorescent (TADF) materials from literature.",
      "domains": [
        "Chemistry",
        "Materials Science",
        "C3-05"
      ],
      "subtask_category": [
        "information_extraction",
        "property_extraction"
      ],
      "application_level": "solver",
      "primary_language": "HTML",
      "repo_url": "https://github.com/Dingyun-Huang/chemdataextractorTADF",
      "help_website": [],
      "license": "NOASSERTION",
      "tags": [
        "tadf",
        "materials-science",
        "extraction"
      ],
      "id": 12
    },
    {
      "name": "pyopsin",
      "one_line_profile": "Python wrapper for OPSIN chemical nomenclature parser",
      "detailed_description": "A Python interface to OPSIN (Open Parser for Systematic IUPAC nomenclature), allowing conversion of IUPAC names to chemical structures.",
      "domains": [
        "Chemistry",
        "C3"
      ],
      "subtask_category": [
        "chemical_name_parsing",
        "structure_conversion"
      ],
      "application_level": "library",
      "primary_language": "Python",
      "repo_url": "https://github.com/Dingyun-Huang/pyopsin",
      "help_website": [],
      "license": "MIT",
      "tags": [
        "iupac",
        "opsin",
        "nomenclature"
      ],
      "id": 13
    },
    {
      "name": "ASKCOSv2",
      "one_line_profile": "Mirror of the ASKCOSv2 synthesis planning project",
      "detailed_description": "A repository containing the code for ASKCOSv2, a platform for computer-aided synthesis planning and chemical reactivity prediction.",
      "domains": [
        "Chemistry",
        "C3"
      ],
      "subtask_category": [
        "synthesis_planning",
        "retrosynthesis"
      ],
      "application_level": "platform",
      "primary_language": null,
      "repo_url": "https://github.com/FourThievesVinegar/ASKCOSv2",
      "help_website": [],
      "license": null,
      "tags": [
        "casp",
        "retrosynthesis",
        "askcos"
      ],
      "id": 14
    },
    {
      "name": "askcos2_core",
      "one_line_profile": "Core functionality for ASKCOSv2 synthesis planning",
      "detailed_description": "The core logic library for the ASKCOSv2 platform, handling synthesis planning algorithms and model interactions.",
      "domains": [
        "Chemistry",
        "C3"
      ],
      "subtask_category": [
        "synthesis_planning",
        "backend_service"
      ],
      "application_level": "library",
      "primary_language": "Python",
      "repo_url": "https://github.com/FourThievesVinegar/askcos2_core",
      "help_website": [],
      "license": "MIT",
      "tags": [
        "synthesis-planning",
        "chemistry-core"
      ],
      "id": 15
    },
    {
      "name": "global-chem",
      "one_line_profile": "Knowledge graph and toolkit for common chemical names",
      "detailed_description": "A software toolkit and knowledge graph mapping common chemical names to their molecular definitions and SMILES strings, accessible via Python.",
      "domains": [
        "Chemistry",
        "C3-05"
      ],
      "subtask_category": [
        "knowledge_graph_access",
        "chemical_normalization"
      ],
      "application_level": "library",
      "primary_language": "Jupyter Notebook",
      "repo_url": "https://github.com/Global-Chem/global-chem",
      "help_website": [
        "https://global-chem.github.io/Global-Chem/"
      ],
      "license": "MPL-2.0",
      "tags": [
        "knowledge-graph",
        "chemical-names",
        "dictionary"
      ],
      "id": 16
    },
    {
      "name": "Retrieval-Retro",
      "one_line_profile": "Retrieval-based inorganic retrosynthesis tool",
      "detailed_description": "Implementation of a retrieval-augmented generation approach for inorganic retrosynthesis, incorporating expert knowledge.",
      "domains": [
        "Chemistry",
        "C3",
        "C3-05"
      ],
      "subtask_category": [
        "retrosynthesis",
        "rag",
        "inorganic_chemistry"
      ],
      "application_level": "solver",
      "primary_language": "Python",
      "repo_url": "https://github.com/HeewoongNoh/Retrieval-Retro",
      "help_website": [],
      "license": null,
      "tags": [
        "retrosynthesis",
        "rag",
        "inorganic"
      ],
      "id": 17
    },
    {
      "name": "py2opsin",
      "one_line_profile": "Simple Python interface to OPSIN",
      "detailed_description": "A lightweight Python wrapper for the OPSIN Java library, enabling systematic IUPAC nomenclature parsing to chemical structures.",
      "domains": [
        "Chemistry",
        "C3"
      ],
      "subtask_category": [
        "chemical_name_parsing",
        "structure_conversion"
      ],
      "application_level": "library",
      "primary_language": "Python",
      "repo_url": "https://github.com/JacksonBurns/py2opsin",
      "help_website": [
        "https://pypi.org/project/py2opsin/"
      ],
      "license": "MIT",
      "tags": [
        "opsin",
        "iupac",
        "wrapper"
      ],
      "id": 18
    },
    {
      "name": "Bio-Domain-Transfer",
      "one_line_profile": "Named Entity Recognition under domain shift for life sciences",
      "detailed_description": "Implementation of metric learning approaches for Named Entity Recognition (NER) in life sciences, specifically handling domain shifts.",
      "domains": [
        "Biology",
        "Chemistry",
        "C3-05"
      ],
      "subtask_category": [
        "named_entity_recognition",
        "nlp",
        "domain_adaptation"
      ],
      "application_level": "solver",
      "primary_language": "Python",
      "repo_url": "https://github.com/Lhtie/Bio-Domain-Transfer",
      "help_website": [],
      "license": null,
      "tags": [
        "ner",
        "bio-nlp",
        "metric-learning"
      ],
      "id": 19
    },
    {
      "name": "ZOSPy",
      "one_line_profile": "Python wrapper for Zemax OpticStudio API",
      "detailed_description": "A Python library providing an intuitive interface to the Zemax OpticStudio API via .NET, facilitating optical simulations and analysis.",
      "domains": [
        "Physics",
        "Optics"
      ],
      "subtask_category": [
        "optical_simulation",
        "api_wrapper"
      ],
      "application_level": "library",
      "primary_language": "Python",
      "repo_url": "https://github.com/MREYE-LUMC/ZOSPy",
      "help_website": [
        "https://zospy.readthedocs.io/"
      ],
      "license": "MIT",
      "tags": [
        "optics",
        "zemax",
        "simulation"
      ],
      "id": 20
    },
    {
      "name": "organic-chemistry-reaction-prediction-using-NMT",
      "one_line_profile": "Reaction prediction using Neural Machine Translation",
      "detailed_description": "An implementation of organic chemistry reaction prediction using Neural Machine Translation (NMT) models with attention mechanisms.",
      "domains": [
        "Chemistry",
        "C3"
      ],
      "subtask_category": [
        "reaction_prediction",
        "nmt"
      ],
      "application_level": "solver",
      "primary_language": "Python",
      "repo_url": "https://github.com/ManzoorElahi/organic-chemistry-reaction-prediction-using-NMT",
      "help_website": [],
      "license": null,
      "tags": [
        "reaction-prediction",
        "nmt",
        "deep-learning"
      ],
      "id": 21
    },
    {
      "name": "Material-Knowledge-Graph",
      "one_line_profile": "Large-scale knowledge graph for material science",
      "detailed_description": "A project providing a large-scale Knowledge Graph for material science, likely including scripts for construction or querying.",
      "domains": [
        "Materials Science",
        "C3-05"
      ],
      "subtask_category": [
        "knowledge_graph",
        "materials_informatics"
      ],
      "application_level": "dataset",
      "primary_language": "Jupyter Notebook",
      "repo_url": "https://github.com/MasterAI-EAM/Material-Knowledge-Graph",
      "help_website": [],
      "license": null,
      "tags": [
        "knowledge-graph",
        "materials-science"
      ],
      "id": 22
    },
    {
      "name": "PyRhO",
      "one_line_profile": "Virtual optogenetics laboratory simulation tool",
      "detailed_description": "A Python module for simulating optogenetic tools and neurons, acting as a virtual laboratory for experimental planning and analysis.",
      "domains": [
        "Biology",
        "Neuroscience"
      ],
      "subtask_category": [
        "simulation",
        "optogenetics",
        "neuron_modeling"
      ],
      "application_level": "library",
      "primary_language": "Python",
      "repo_url": "https://github.com/ProjectPyRhO/PyRhO",
      "help_website": [
        "http://www.imperial.ac.uk/a-z-research/computational-neuroscience/software-and-data/pyrho/"
      ],
      "license": "BSD-3-Clause",
      "tags": [
        "optogenetics",
        "neuroscience",
        "simulation"
      ],
      "id": 23
    },
    {
      "name": "BandgapDatabase1",
      "one_line_profile": "Code for generating a bandgap database using ChemDataExtractor",
      "detailed_description": "Scripts and tools to generate a database of bandgap values from literature using ChemDataExtractor.",
      "domains": [
        "Materials Science",
        "Chemistry",
        "C3-05"
      ],
      "subtask_category": [
        "information_extraction",
        "database_generation",
        "property_mining"
      ],
      "application_level": "solver",
      "primary_language": "Python",
      "repo_url": "https://github.com/QingyangDong-qd220/BandgapDatabase1",
      "help_website": [],
      "license": "MIT",
      "tags": [
        "bandgap",
        "extraction",
        "materials"
      ],
      "id": 24
    },
    {
      "name": "OPSIN",
      "one_line_profile": "Open Parser for Systematic IUPAC Nomenclature to structure conversion",
      "detailed_description": "A Java library for converting IUPAC chemical nomenclature into semantic chemical structures (CML, SMILES, InChI). It supports a wide range of organic and inorganic nomenclature.",
      "domains": [
        "C3",
        "C3-05"
      ],
      "subtask_category": [
        "data_processing",
        "normalization",
        "structure_conversion"
      ],
      "application_level": "library",
      "primary_language": "Java",
      "repo_url": "https://github.com/dan2097/opsin",
      "help_website": [
        "https://opsin.ch.cam.ac.uk/"
      ],
      "license": "MIT",
      "tags": [
        "iupac",
        "cheminformatics",
        "name-to-structure"
      ],
      "id": 25
    },
    {
      "name": "Patent Reaction Extraction",
      "one_line_profile": "Text mining toolkit for extracting chemical reactions from patents",
      "detailed_description": "A Java-based system for extracting chemical reaction information from patent text, including reactants, products, and conditions. It is designed to handle the complex linguistic structures found in patent literature.",
      "domains": [
        "C3",
        "C3-05"
      ],
      "subtask_category": [
        "extraction",
        "text_mining",
        "patent_analysis"
      ],
      "application_level": "solver",
      "primary_language": "Java",
      "repo_url": "https://github.com/dan2097/patent-reaction-extraction",
      "help_website": [],
      "license": "MIT",
      "tags": [
        "text-mining",
        "patents",
        "reaction-extraction"
      ],
      "id": 26
    },
    {
      "name": "ReactionDataExtractor v2",
      "one_line_profile": "Toolkit for extraction of information from chemical reaction schemes",
      "detailed_description": "An updated version of ReactionDataExtractor designed to automatically extract chemical reaction schemes and associated data from scientific literature, facilitating the creation of reaction databases.",
      "domains": [
        "C3",
        "C3-05"
      ],
      "subtask_category": [
        "extraction",
        "text_mining",
        "reaction_schemes"
      ],
      "application_level": "library",
      "primary_language": "Python",
      "repo_url": "https://github.com/dmw51/reactiondataextractor2",
      "help_website": [],
      "license": "MIT",
      "tags": [
        "reaction-extraction",
        "cheminformatics",
        "literature-mining"
      ],
      "id": 27
    },
    {
      "name": "MSTM-Spectrum",
      "one_line_profile": "Wrapper for Multiple Sphere T-Matrix code for SPR spectrum calculation",
      "detailed_description": "A Python wrapper for the Multiple Sphere T-Matrix (MSTM) code and Mie theory, used to calculate Surface Plasmon Resonance (SPR) spectra and fit them to experimental data.",
      "domains": [
        "C3",
        "Physics"
      ],
      "subtask_category": [
        "simulation",
        "spectroscopy",
        "fitting"
      ],
      "application_level": "solver",
      "primary_language": "Python",
      "repo_url": "https://github.com/lavakyan/mstm-spectrum",
      "help_website": [],
      "license": "GPL-3.0",
      "tags": [
        "t-matrix",
        "plasmon-resonance",
        "spectroscopy"
      ],
      "id": 28
    },
    {
      "name": "LBNLP",
      "one_line_profile": "NLP tools for materials science and chemistry from LBNL",
      "detailed_description": "A collection of Natural Language Processing tools specifically designed for materials science and chemistry text mining, developed by the Lawrence Berkeley National Lab.",
      "domains": [
        "C3",
        "C3-05",
        "Materials"
      ],
      "subtask_category": [
        "nlp",
        "text_mining",
        "extraction"
      ],
      "application_level": "library",
      "primary_language": "Python",
      "repo_url": "https://github.com/lbnlp/lbnlp",
      "help_website": [],
      "license": "BSD-2-Clause",
      "tags": [
        "nlp",
        "materials-science",
        "text-mining"
      ],
      "id": 29
    },
    {
      "name": "PatentChem",
      "one_line_profile": "Tool for downloading patents and finding related molecules",
      "detailed_description": "A tool that automates the downloading of USPTO patents and identifies molecules related to specific keyword queries, facilitating chemical patent analysis.",
      "domains": [
        "C3",
        "C3-05"
      ],
      "subtask_category": [
        "retrieval",
        "patent_mining",
        "molecule_identification"
      ],
      "application_level": "solver",
      "primary_language": "Python",
      "repo_url": "https://github.com/learningmatter-mit/PatentChem",
      "help_website": [],
      "license": "MIT",
      "tags": [
        "patents",
        "uspto",
        "molecule-mining"
      ],
      "id": 30
    },
    {
      "name": "Bio-NER",
      "one_line_profile": "Biomedical Named Entity Recognition for diseases and chemicals",
      "detailed_description": "A library for Biomedical Named Entity Recognition (NER) and Normalization, focusing on diseases, chemicals, and genetic entities using state-of-the-art models.",
      "domains": [
        "C3",
        "C3-05",
        "Biology"
      ],
      "subtask_category": [
        "ner",
        "entity_extraction",
        "normalization"
      ],
      "application_level": "library",
      "primary_language": "Jupyter Notebook",
      "repo_url": "https://github.com/librairy/bio-ner",
      "help_website": [],
      "license": "Apache-2.0",
      "tags": [
        "ner",
        "biomedical",
        "entity-recognition"
      ],
      "id": 31
    },
    {
      "name": "ChemDataExtractor",
      "one_line_profile": "Toolkit for automated extraction of chemical information from scientific documents",
      "detailed_description": "A comprehensive toolkit for extracting chemical information from scientific documents, including chemical names, properties, and spectra. It uses a combination of rule-based and machine learning approaches.",
      "domains": [
        "C3",
        "C3-05"
      ],
      "subtask_category": [
        "extraction",
        "text_mining",
        "property_extraction"
      ],
      "application_level": "library",
      "primary_language": "Python",
      "repo_url": "https://github.com/mcs07/ChemDataExtractor",
      "help_website": [
        "http://chemdataextractor.org/"
      ],
      "license": "MIT",
      "tags": [
        "text-mining",
        "cheminformatics",
        "information-extraction"
      ],
      "id": 32
    },
    {
      "name": "PubChemPy",
      "one_line_profile": "Python wrapper for the PubChem PUG REST API",
      "detailed_description": "A Python library that provides a convenient wrapper for the PubChem PUG REST API, allowing users to search, download, and manipulate chemical data from PubChem programmatically.",
      "domains": [
        "C3",
        "C3-05"
      ],
      "subtask_category": [
        "retrieval",
        "api_wrapper",
        "data_access"
      ],
      "application_level": "library",
      "primary_language": "Python",
      "repo_url": "https://github.com/mcs07/PubChemPy",
      "help_website": [
        "https://pubchempy.readthedocs.io/"
      ],
      "license": "MIT",
      "tags": [
        "pubchem",
        "api-wrapper",
        "chemical-database"
      ],
      "id": 33
    },
    {
      "name": "ApeTokenizer",
      "one_line_profile": "Tokenizer for chemical SMILES and SELFIES sequences",
      "detailed_description": "A specialized tokenizer designed for processing chemical string representations like SMILES and SELFIES, optimized for use with transformer-based machine learning models in chemistry.",
      "domains": [
        "C3",
        "C3-05"
      ],
      "subtask_category": [
        "tokenization",
        "data_processing",
        "nlp"
      ],
      "application_level": "library",
      "primary_language": "Python",
      "repo_url": "https://github.com/mikemayuare/apetokenizer",
      "help_website": [],
      "license": "NOASSERTION",
      "tags": [
        "tokenizer",
        "smiles",
        "selfies"
      ],
      "id": 34
    },
    {
      "name": "Rxn-INSIGHT",
      "one_line_profile": "Tool for analyzing chemical databases and predicting reaction conditions",
      "detailed_description": "A cheminformatics tool for analyzing chemical reaction databases and predicting reaction conditions. It aids in understanding reaction patterns and optimizing synthetic routes.",
      "domains": [
        "C3"
      ],
      "subtask_category": [
        "prediction",
        "analysis",
        "reaction_conditions"
      ],
      "application_level": "solver",
      "primary_language": "Python",
      "repo_url": "https://github.com/mrodobbe/Rxn-INSIGHT",
      "help_website": [],
      "license": "MIT",
      "tags": [
        "reaction-prediction",
        "cheminformatics",
        "reaction-conditions"
      ],
      "id": 35
    },
    {
      "name": "Cactus",
      "one_line_profile": "LLM Agent leveraging cheminformatics tools for informed responses",
      "detailed_description": "An LLM-based agent developed by PNNL that integrates various cheminformatics tools to provide accurate and informed responses to chemistry-related queries, acting as a retrieval-augmented generation system.",
      "domains": [
        "C3",
        "C3-05"
      ],
      "subtask_category": [
        "agent",
        "rag",
        "qa"
      ],
      "application_level": "solver",
      "primary_language": "Jupyter Notebook",
      "repo_url": "https://github.com/pnnl/cactus",
      "help_website": [],
      "license": "BSD-2-Clause",
      "tags": [
        "llm-agent",
        "cheminformatics",
        "rag"
      ],
      "id": 36
    },
    {
      "name": "ChemSpot",
      "one_line_profile": "Named entity recognition tool for identifying chemical mentions in natural language texts",
      "detailed_description": "ChemSpot is a tool designed to identify mentions of chemicals in text, covering trivial names, drugs, abbreviations, molecular formulas, and IUPAC entities. It employs a hybrid approach combining a Conditional Random Field (CRF) with a dictionary to handle the diverse naming characteristics of chemical entities.",
      "domains": [
        "C3",
        "C3-05"
      ],
      "subtask_category": [
        "named_entity_recognition",
        "information_extraction",
        "text_mining"
      ],
      "application_level": "solver",
      "primary_language": "Java",
      "repo_url": "https://github.com/rockt/ChemSpot",
      "help_website": [],
      "license": "NOASSERTION",
      "tags": [
        "ner",
        "chemistry",
        "nlp",
        "text-mining"
      ],
      "id": 37
    },
    {
      "name": "RXNMapper",
      "one_line_profile": "Unsupervised attention-guided atom-mapping tool for chemical reactions",
      "detailed_description": "RXNMapper provides a method for atom-mapping chemical reactions using an unsupervised attention-guided approach. It extracts organic chemistry grammar from chemical reactions, serving as a critical component for reaction prediction and mechanism understanding tasks.",
      "domains": [
        "C3",
        "C3-05"
      ],
      "subtask_category": [
        "atom_mapping",
        "reaction_grammar_extraction",
        "data_processing"
      ],
      "application_level": "library",
      "primary_language": "Python",
      "repo_url": "https://github.com/rxn4chemistry/rxnmapper",
      "help_website": [
        "https://advances.sciencemag.org/content/7/15/eabe4166"
      ],
      "license": "MIT",
      "tags": [
        "atom-mapping",
        "transformers",
        "reaction-prediction",
        "chemistry"
      ],
      "id": 38
    }
  ]
}